JEET Custom made for Amber GAFF FF
 2250 atoms
 2000 bonds
 3250 angles
 3000 dihedrals
 0 impropers
 5 atom types
 5 bond types
 7 angle types
 4 dihedral types
 0 improper types
 -0.500000 60  xlo xhi
 -0.500000 60  ylo yhi
 -0.500000 60  zlo zhi


 Atoms # full

1 1 5 -0.393770  10.289000 43.868000 10.328000 # sh L1
2 1 4  0.204285  9.015000 43.695999 9.934000 # hs L1
3 1 1  0.083509  10.175000 45.263000 11.482000 # c3 L1
4 1 2  0.032349  9.514000 44.999001 12.307000 # h1 L1
5 1 2  0.032349  9.776000 46.132999 10.961000 # h1 L1
6 1 1 -0.146711  11.567000 45.588001 12.027000 # c3 L1
7 1 3  0.062663  11.965000 44.717999 12.549000 # hc L1
8 1 3  0.062663  12.228000 45.853001 11.202000 # hc L1
9 1 3  0.062663  11.498000 46.426998 12.721000 # hc L1
10 2 5 -0.393770  40.151001 6.242000 42.451000 # sh L1
11 2 4  0.204285  40.630001 6.695000 41.278999 # hs L1
12 2 1  0.083509  38.425999 6.802000 42.432999 # c3 L1
13 2 2  0.032349  37.911999 6.369000 41.575001 # h1 L1
14 2 2  0.032349  38.398998 7.890000 42.361000 # h1 L1
15 2 1 -0.146711  37.731998 6.358000 43.722000 # c3 L1
16 2 3  0.062663  37.758999 5.271000 43.792000 # hc L1
17 2 3  0.062663  38.244999 6.792000 44.580002 # hc L1
18 2 3  0.062663  36.695000 6.696000 43.709999 # hc L1
19 3 5 -0.393770  11.129000 27.785000 3.056000 # sh L1
20 3 4  0.204285  10.309000 28.849001 2.993000 # hs L1
21 3 1  0.083509  12.594000 28.447001 3.896000 # c3 L1
22 3 2  0.032349  12.311000 28.818001 4.882000 # h1 L1
23 3 2  0.032349  13.012000 29.264000 3.307000 # h1 L1
24 3 1 -0.146711  13.639000 27.340000 4.048000 # c3 L1
25 3 3  0.062663  13.220000 26.525000 4.638000 # hc L1
26 3 3  0.062663  13.922000 26.969999 3.063000 # hc L1
27 3 3  0.062663  14.519000 27.739000 4.553000 # hc L1
28 4 5 -0.393770  26.708000 38.933998 52.578999 # sh L1
29 4 4  0.204285  26.298000 40.213001 52.655998 # hs L1
30 4 1  0.083509  26.218000 38.446999 50.902000 # c3 L1
31 4 2  0.032349  26.716000 39.091000 50.176998 # h1 L1
32 4 2  0.032349  25.138000 38.547001 50.796001 # h1 L1
33 4 1 -0.146711  26.622000 36.992001 50.654999 # c3 L1
34 4 3  0.062663  27.702999 36.893002 50.759998 # hc L1
35 4 3  0.062663  26.124001 36.348999 51.380001 # hc L1
36 4 3  0.062663  26.327000 36.700001 49.646999 # hc L1
37 5 5 -0.393770  5.380000 27.294001 33.384998 # sh L1
38 5 4  0.204285  6.580000 27.509001 33.952999 # hs L1
39 5 1  0.083509  4.498000 26.330999 34.644001 # c3 L1
40 5 2  0.032349  4.429000 26.912001 35.563999 # h1 L1
41 5 2  0.032349  5.041000 25.406000 34.839001 # h1 L1
42 5 1 -0.146711  3.091000 26.000999 34.140999 # c3 L1
43 5 3  0.062663  2.549000 26.926001 33.946999 # hc L1
44 5 3  0.062663  3.161000 25.419001 33.222000 # hc L1
45 5 3  0.062663  2.562000 25.422001 34.898998 # hc L1
46 6 5 -0.393770  53.460999 22.465000 55.547001 # sh L1
47 6 4  0.204285  53.849998 23.482000 54.757000 # hs L1
48 6 1  0.083509  52.792999 21.261999 54.363998 # c3 L1
49 6 2  0.032349  53.574001 20.972000 53.660999 # h1 L1
50 6 2  0.032349  51.963001 21.711000 53.820000 # h1 L1
51 6 1 -0.146711  52.299999 20.025999 55.118000 # c3 L1
52 6 3  0.062663  53.132000 19.577000 55.661999 # hc L1
53 6 3  0.062663  51.519001 20.316000 55.820999 # hc L1
54 6 3  0.062663  51.898998 19.302999 54.407001 # hc L1
55 7 5 -0.393770  24.570999 23.197001 16.768000 # sh L1
56 7 4  0.204285  24.563000 23.809999 17.965000 # hs L1
57 7 1  0.083509  26.340000 23.042000 16.399000 # c3 L1
58 7 2  0.032349  26.823000 22.450001 17.177000 # h1 L1
59 7 2  0.032349  26.791000 24.034000 16.364000 # h1 L1
60 7 1 -0.146711  26.520000 22.351999 15.046000 # c3 L1
61 7 3  0.062663  26.069000 21.360001 15.081000 # hc L1
62 7 3  0.062663  26.038000 22.944000 14.268000 # hc L1
63 7 3  0.062663  27.584000 22.260000 14.825000 # hc L1
64 8 5 -0.393770  34.583000 27.283001 35.074001 # sh L1
65 8 4  0.204285  34.341000 28.576000 35.355000 # hs L1
66 8 1  0.083509  36.188000 27.341999 34.230000 # c3 L1
67 8 2  0.032349  36.933998 27.773001 34.898998 # h1 L1
68 8 2  0.032349  36.105000 27.955999 33.334000 # h1 L1
69 8 1 -0.146711  36.610001 25.924000 33.840000 # c3 L1
70 8 3  0.062663  36.694000 25.309999 34.736000 # hc L1
71 8 3  0.062663  35.863998 25.493999 33.171001 # hc L1
72 8 3  0.062663  37.575001 25.959999 33.333000 # hc L1
73 9 5 -0.393770  15.275000 0.219000 4.920000 # sh L1
74 9 4  0.204285  15.123000 0.174000 3.585000 # hs L1
75 9 1  0.083509  15.666000 1.964000 5.228000 # c3 L1
76 9 2  0.032349  14.843000 2.588000 4.878000 # h1 L1
77 9 2  0.032349  16.577000 2.231000 4.694000 # h1 L1
78 9 1 -0.146711  15.870000 2.183000 6.728000 # c3 L1
79 9 3  0.062663  14.958000 1.917000 7.262000 # hc L1
80 9 3  0.062663  16.693001 1.560000 7.078000 # hc L1
81 9 3  0.062663  16.105000 3.232000 6.912000 # hc L1
82 10 5 -0.393770  38.182999 49.735001 23.980000 # sh L1
83 10 4  0.204285  37.541000 48.553001 23.983999 # hs L1
84 10 1  0.083509  36.826000 50.938000 23.981001 # c3 L1
85 10 2  0.032349  36.214001 50.796001 24.872999 # h1 L1
86 10 2  0.032349  36.212002 50.792999 23.093000 # h1 L1
87 10 1 -0.146711  37.401001 52.355999 23.976999 # c3 L1
88 10 3  0.062663  38.014000 52.500999 24.867001 # hc L1
89 10 3  0.062663  38.011002 52.498001 23.086000 # hc L1
90 10 3  0.062663  36.584000 53.077999 23.978001 # hc L1
91 11 5 -0.393770  32.835999 5.956000 53.931999 # sh L1
92 11 4  0.204285  33.456001 7.057000 54.391998 # hs L1
93 11 1  0.083509  32.237000 6.476000 52.299999 # c3 L1
94 11 2  0.032349  33.083000 6.772000 51.680000 # h1 L1
95 11 2  0.032349  31.558001 7.321000 52.415001 # h1 L1
96 11 1 -0.146711  31.497000 5.314000 51.634998 # c3 L1
97 11 3  0.062663  32.175999 4.470000 51.520000 # hc L1
98 11 3  0.062663  30.650000 5.020000 52.256001 # hc L1
99 11 3  0.062663  31.136999 5.628000 50.654999 # hc L1
100 12 5 -0.393770  19.136000 20.371000 22.568001 # sh L1
101 12 4  0.204285  18.941000 20.500000 21.243999 # hs L1
102 12 1  0.083509  19.896000 18.731001 22.712000 # c3 L1
103 12 2  0.032349  20.829000 18.711000 22.146999 # h1 L1
104 12 2  0.032349  19.215000 17.979000 22.313999 # h1 L1
105 12 1 -0.146711  20.184000 18.430000 24.184000 # c3 L1
106 12 3  0.062663  20.865999 19.181999 24.580999 # hc L1
107 12 3  0.062663  19.252001 18.448999 24.747999 # hc L1
108 12 3  0.062663  20.641001 17.443001 24.270000 # hc L1
109 13 5 -0.393770  13.658000 39.877998 14.637000 # sh L1
110 13 4  0.204285  13.998000 41.160000 14.417000 # hs L1
111 13 1  0.083509  11.849000 39.948002 14.750000 # c3 L1
112 13 2  0.032349  11.441000 40.335999 13.816000 # h1 L1
113 13 2  0.032349  11.562000 40.605000 15.571000 # h1 L1
114 13 1 -0.146711  11.298000 38.542999 15.003000 # c3 L1
115 13 3  0.062663  11.585000 37.888000 14.181000 # hc L1
116 13 3  0.062663  11.705000 38.155998 15.937000 # hc L1
117 13 3  0.062663  10.211000 38.587002 15.071000 # hc L1
118 14 5 -0.393770  11.738000 42.673000 54.709000 # sh L1
119 14 4  0.204285  12.337000 41.541000 54.299000 # hs L1
120 14 1  0.083509  9.974000 42.294998 54.516998 # c3 L1
121 14 2  0.032349  9.717000 41.436001 55.138000 # h1 L1
122 14 2  0.032349  9.764000 42.064999 53.473000 # h1 L1
123 14 1 -0.146711  9.144000 43.505001 54.950001 # c3 L1
124 14 3  0.062663  9.354000 43.734001 55.994999 # hc L1
125 14 3  0.062663  9.401000 44.362999 54.330002 # hc L1
126 14 3  0.062663  8.084000 43.277000 54.834999 # hc L1
127 15 5 -0.393770  10.857000 42.583000 45.525002 # sh L1
128 15 4  0.204285  9.700000 43.270000 45.530998 # hs L1
129 15 1  0.083509  10.404000 41.027000 44.710999 # c3 L1
130 15 2  0.032349  10.035000 41.236000 43.706001 # h1 L1
131 15 2  0.032349  9.625000 40.528999 45.287998 # h1 L1
132 15 1 -0.146711  11.633000 40.119999 44.625000 # c3 L1
133 15 3  0.062663  12.412000 40.618000 44.047001 # hc L1
134 15 3  0.062663  12.002000 39.910999 45.629002 # hc L1
135 15 3  0.062663  11.360000 39.185001 44.136002 # hc L1
136 16 5 -0.393770  25.719999 52.813000 14.901000 # sh L1
137 16 4  0.204285  25.583000 54.062000 15.381000 # hs L1
138 16 1  0.083509  24.129000 52.514000 14.082000 # c3 L1
139 16 2  0.032349  23.981001 53.254002 13.294000 # h1 L1
140 16 2  0.032349  23.323999 52.597000 14.812000 # h1 L1
141 16 1 -0.146711  24.125000 51.111000 13.473000 # c3 L1
142 16 3  0.062663  24.929001 51.029999 12.742000 # hc L1
143 16 3  0.062663  24.271000 50.373001 14.261000 # hc L1
144 16 3  0.062663  23.167999 50.931999 12.981000 # hc L1
145 17 5 -0.393770  29.469000 45.668999 2.493000 # sh L1
146 17 4  0.204285  30.497999 45.819000 3.347000 # hs L1
147 17 1  0.083509  28.353001 47.021999 2.955000 # c3 L1
148 17 2  0.032349  28.865999 47.976002 2.829000 # h1 L1
149 17 2  0.032349  28.054001 46.905998 3.997000 # h1 L1
150 17 1 -0.146711  27.112000 46.987000 2.061000 # c3 L1
151 17 3  0.062663  27.413000 47.105000 1.019000 # hc L1
152 17 3  0.062663  26.599001 46.034000 2.187000 # hc L1
153 17 3  0.062663  26.441999 47.800999 2.339000 # hc L1
154 18 5 -0.393770  40.280998 14.298000 39.173000 # sh L1
155 18 4  0.204285  39.164001 14.894000 38.720001 # hs L1
156 18 1  0.083509  40.212002 12.659000 38.400002 # c3 L1
157 18 2  0.032349  40.206001 12.769000 37.314999 # h1 L1
158 18 2  0.032349  39.305000 12.145000 38.717999 # h1 L1
159 18 1 -0.146711  41.435001 11.844000 38.823002 # c3 L1
160 18 3  0.062663  42.341999 12.357000 38.504002 # hc L1
161 18 3  0.062663  41.441002 11.733000 39.907001 # hc L1
162 18 3  0.062663  41.393002 10.858000 38.356998 # hc L1
163 19 5 -0.393770  50.709000 46.507000 33.584999 # sh L1
164 19 4  0.204285  51.382999 45.344002 33.550999 # hs L1
165 19 1  0.083509  49.081001 46.056000 32.923000 # c3 L1
166 19 2  0.032349  48.631001 45.291000 33.556999 # h1 L1
167 19 2  0.032349  49.195999 45.667000 31.912001 # h1 L1
168 19 1 -0.146711  48.181000 47.292000 32.896000 # c3 L1
169 19 3  0.062663  48.066002 47.680000 33.908001 # hc L1
170 19 3  0.062663  48.631001 48.056000 32.262001 # hc L1
171 19 3  0.062663  47.202999 47.019001 32.498001 # hc L1
172 20 5 -0.393770  12.211000 54.178001 18.941000 # sh L1
173 20 4  0.204285  11.334000 53.430000 19.632999 # hs L1
174 20 1  0.083509  13.629000 54.292999 20.068001 # c3 L1
175 20 2  0.032349  14.006000 53.292999 20.280001 # h1 L1
176 20 2  0.032349  13.316000 54.768002 20.997000 # h1 L1
177 20 1 -0.146711  14.732000 55.127998 19.415001 # c3 L1
178 20 3  0.062663  15.046000 54.653000 18.486000 # hc L1
179 20 3  0.062663  14.354000 56.129002 19.204000 # hc L1
180 20 3  0.062663  15.584000 55.196999 20.093000 # hc L1
181 21 5 -0.393770  56.264999 24.216000 16.108999 # sh L1
182 21 4  0.204285  56.360001 23.709000 17.350000 # hs L1
183 21 1  0.083509  57.844002 25.084999 15.900000 # c3 L1
184 21 2  0.032349  58.665001 24.375000 16.000999 # h1 L1
185 21 2  0.032349  57.936001 25.858000 16.662001 # h1 L1
186 21 1 -0.146711  57.891998 25.728001 14.513000 # c3 L1
187 21 3  0.062663  57.800999 24.954000 13.750000 # hc L1
188 21 3  0.062663  57.070999 26.438000 14.412000 # hc L1
189 21 3  0.062663  58.841999 26.249001 14.388000 # hc L1
190 22 5 -0.393770  49.928001 56.762001 45.835999 # sh L1
191 22 4  0.204285  49.900002 55.448002 46.119999 # hs L1
192 22 1  0.083509  51.698002 57.154999 45.893002 # c3 L1
193 22 2  0.032349  52.228001 56.554001 45.153000 # h1 L1
194 22 2  0.032349  52.087002 56.932999 46.887001 # h1 L1
195 22 1 -0.146711  51.901001 58.639999 45.585999 # c3 L1
196 22 3  0.062663  51.512001 58.861000 44.591000 # hc L1
197 22 3  0.062663  51.372002 59.240002 46.326000 # hc L1
198 22 3  0.062663  52.965000 58.875000 45.619999 # hc L1
199 23 5 -0.393770  33.484001 24.855000 10.938000 # sh L1
200 23 4  0.204285  34.237000 23.881001 11.477000 # hs L1
201 23 1  0.083509  33.612000 26.193001 12.156000 # c3 L1
202 23 2  0.032349  34.657001 26.483000 12.269000 # h1 L1
203 23 2  0.032349  33.226002 25.848000 13.116000 # h1 L1
204 23 1 -0.146711  32.794998 27.396000 11.681000 # c3 L1
205 23 3  0.062663  33.181999 27.740999 10.722000 # hc L1
206 23 3  0.062663  31.750000 27.105000 11.570000 # hc L1
207 23 3  0.062663  32.872002 28.198999 12.414000 # hc L1
208 24 5 -0.393770  29.028000 49.014999 12.529000 # sh L1
209 24 4  0.204285  30.153000 49.412998 13.150000 # hs L1
210 24 1  0.083509  29.052999 47.215000 12.753000 # c3 L1
211 24 2  0.032349  29.049999 46.980999 13.818000 # h1 L1
212 24 2  0.032349  29.952000 46.805000 12.294000 # h1 L1
213 24 1 -0.146711  27.816999 46.602001 12.091000 # c3 L1
214 24 3  0.062663  26.917999 47.012001 12.552000 # hc L1
215 24 3  0.062663  27.820999 46.835999 11.027000 # hc L1
216 24 3  0.062663  27.833000 45.520000 12.226000 # hc L1
217 25 5 -0.393770  15.586000 23.516001 26.950001 # sh L1
218 25 4  0.204285  14.665000 24.023001 26.112000 # hs L1
219 25 1  0.083509  15.378000 24.523001 28.445000 # c3 L1
220 25 2  0.032349  14.361000 24.410000 28.820999 # h1 L1
221 25 2  0.032349  15.562000 25.570000 28.205000 # h1 L1
222 25 1 -0.146711  16.372000 24.062000 29.511999 # c3 L1
223 25 3  0.062663  16.187000 23.014999 29.753000 # hc L1
224 25 3  0.062663  17.389000 24.176001 29.136999 # hc L1
225 25 3  0.062663  16.246000 24.667999 30.410000 # hc L1
226 26 5 -0.393770  42.880001 0.822000 46.645000 # sh L1
227 26 4  0.204285  43.595001 0.015000 47.449001 # hs L1
228 26 1  0.083509  44.091000 2.076000 46.144001 # c3 L1
229 26 2  0.032349  44.919998 1.594000 45.625000 # h1 L1
230 26 2  0.032349  44.466999 2.591000 47.028000 # h1 L1
231 26 1 -0.146711  43.422001 3.086000 45.209999 # c3 L1
232 26 3  0.062663  43.048000 2.570000 44.325001 # hc L1
233 26 3  0.062663  42.594002 3.568000 45.729000 # hc L1
234 26 3  0.062663  44.151001 3.840000 44.909000 # hc L1
235 27 5 -0.393770  39.019001 51.409000 5.993000 # sh L1
236 27 4  0.204285  38.375999 50.228001 6.026000 # hs L1
237 27 1  0.083509  38.574001 52.073002 4.365000 # c3 L1
238 27 2  0.032349  37.491001 52.182999 4.302000 # h1 L1
239 27 2  0.032349  38.915001 51.388000 3.588000 # h1 L1
240 27 1 -0.146711  39.238998 53.437000 4.171000 # c3 L1
241 27 3  0.062663  38.896000 54.120998 4.947000 # hc L1
242 27 3  0.062663  40.320999 53.326000 4.234000 # hc L1
243 27 3  0.062663  38.970001 53.834999 3.192000 # hc L1
244 28 5 -0.393770  51.472000 50.356998 56.084000 # sh L1
245 28 4  0.204285  50.519001 51.294998 55.943001 # hs L1
246 28 1  0.083509  50.591999 49.000999 56.907001 # c3 L1
247 28 2  0.032349  49.765999 48.668999 56.278000 # h1 L1
248 28 2  0.032349  50.202999 49.348999 57.863998 # h1 L1
249 28 1 -0.146711  51.556000 47.835999 57.141998 # c3 L1
250 28 3  0.062663  51.945000 47.487999 56.185001 # hc L1
251 28 3  0.062663  52.382000 48.168999 57.771000 # hc L1
252 28 3  0.062663  51.027000 47.021999 57.637001 # hc L1
253 29 5 -0.393770  41.922001 4.395000 14.764000 # sh L1
254 29 4  0.204285  41.698002 5.717000 14.864000 # hs L1
255 29 1  0.083509  40.653999 3.853000 13.586000 # c3 L1
256 29 2  0.032349  40.792000 4.375000 12.638000 # h1 L1
257 29 2  0.032349  39.666000 4.082000 13.985000 # h1 L1
258 29 1 -0.146711  40.778000 2.345000 13.361000 # c3 L1
259 29 3  0.062663  41.765999 2.117000 12.961000 # hc L1
260 29 3  0.062663  40.639000 1.824000 14.308000 # hc L1
261 29 3  0.062663  40.014999 2.020000 12.653000 # hc L1
262 30 5 -0.393770  39.091999 6.615000 54.987999 # sh L1
263 30 4  0.204285  38.419998 5.672000 55.671001 # hs L1
264 30 1  0.083509  40.469002 7.021000 56.097000 # c3 L1
265 30 2  0.032349  41.066002 6.126000 56.277000 # h1 L1
266 30 2  0.032349  40.075001 7.391000 57.042999 # h1 L1
267 30 1 -0.146711  41.342999 8.097000 55.452000 # c3 L1
268 30 3  0.062663  41.737999 7.726000 54.506001 # hc L1
269 30 3  0.062663  40.745998 8.991000 55.272999 # hc L1
270 30 3  0.062663  42.171001 8.341000 56.119999 # hc L1
271 31 5 -0.393770  33.449001 4.323000 9.674000 # sh L1
272 31 4  0.204285  34.075001 4.814000 10.758000 # hs L1
273 31 1  0.083509  31.702000 4.663000 10.021000 # c3 L1
274 31 2  0.032349  31.556999 5.738000 10.138000 # h1 L1
275 31 2  0.032349  31.409000 4.155000 10.940000 # h1 L1
276 31 1 -0.146711  30.843000 4.156000 8.861000 # c3 L1
277 31 3  0.062663  31.136000 4.665000 7.943000 # hc L1
278 31 3  0.062663  30.988001 3.082000 8.745000 # hc L1
279 31 3  0.062663  29.792999 4.361000 9.071000 # hc L1
280 32 5 -0.393770  58.817001 8.546000 53.148998 # sh L1
281 32 4  0.204285  60.000000 7.937000 52.955002 # hs L1
282 32 1  0.083509  59.207001 9.813000 54.388000 # c3 L1
283 32 2  0.032349  59.966000 10.487000 53.991001 # h1 L1
284 32 2  0.032349  59.584000 9.333000 55.291000 # h1 L1
285 32 1 -0.146711  57.942001 10.606000 54.722000 # c3 L1
286 32 3  0.062663  57.566002 11.086000 53.819000 # hc L1
287 32 3  0.062663  57.183998 9.931000 55.118999 # hc L1
288 32 3  0.062663  58.178001 11.367000 55.466999 # hc L1
289 33 5 -0.393770  49.868999 34.252998 13.409000 # sh L1
290 33 4  0.204285  50.348999 34.320999 14.663000 # hs L1
291 33 1  0.083509  51.276001 33.599998 12.468000 # c3 L1
292 33 2  0.032349  51.556000 32.623001 12.863000 # h1 L1
293 33 2  0.032349  52.119999 34.283001 12.557000 # h1 L1
294 33 1 -0.146711  50.883999 33.462002 10.995000 # c3 L1
295 33 3  0.062663  50.040001 32.777000 10.907000 # hc L1
296 33 3  0.062663  50.605000 34.438000 10.600000 # hc L1
297 33 3  0.062663  51.730000 33.069000 10.431000 # hc L1
298 34 5 -0.393770  53.716000 19.222000 15.772000 # sh L1
299 34 4  0.204285  54.125999 19.454000 17.031000 # hs L1
300 34 1  0.083509  55.230000 18.660000 14.946000 # c3 L1
301 34 2  0.032349  55.601002 17.761000 15.439000 # h1 L1
302 34 2  0.032349  55.986000 19.443001 15.003000 # h1 L1
303 34 1 -0.146711  54.925999 18.351000 13.479000 # c3 L1
304 34 3  0.062663  54.169998 17.566999 13.423000 # hc L1
305 34 3  0.062663  54.556000 19.250000 12.986000 # hc L1
306 34 3  0.062663  55.837002 18.013000 12.983000 # hc L1
307 35 5 -0.393770  42.875000 18.943001 38.577000 # sh L1
308 35 4  0.204285  44.056000 18.548000 39.084999 # hs L1
309 35 1  0.083509  42.870998 20.729000 38.895000 # c3 L1
310 35 2  0.032349  43.720001 21.190001 38.389999 # h1 L1
311 35 2  0.032349  42.945999 20.907000 39.966999 # h1 L1
312 35 1 -0.146711  41.570000 21.337000 38.367001 # c3 L1
313 35 3  0.062663  41.495998 21.160000 37.293999 # hc L1
314 35 3  0.062663  40.722000 20.877001 38.872002 # hc L1
315 35 3  0.062663  41.568001 22.410999 38.557999 # hc L1
316 36 5 -0.393770  24.834000 0.002000 30.775000 # sh L1
317 36 4  0.204285  25.978001 0.707000 30.798000 # hs L1
318 36 1  0.083509  23.559999 1.292000 30.702999 # c3 L1
319 36 2  0.032349  23.701000 1.892000 29.804001 # h1 L1
320 36 2  0.032349  23.641001 1.931000 31.582001 # h1 L1
321 36 1 -0.146711  22.176001 0.641000 30.671000 # c3 L1
322 36 3  0.062663  22.094999 0.003000 29.791000 # hc L1
323 36 3  0.062663  22.035000 0.041000 31.570000 # hc L1
324 36 3  0.062663  21.410999 1.417000 30.628000 # hc L1
325 37 5 -0.393770  8.922000 15.146000 4.384000 # sh L1
326 37 4  0.204285  7.928000 14.249000 4.513000 # hs L1
327 37 1  0.083509  8.384000 16.509001 5.453000 # c3 L1
328 37 2  0.032349  8.275000 16.146999 6.476000 # h1 L1
329 37 2  0.032349  7.426000 16.891001 5.100000 # h1 L1
330 37 1 -0.146711  9.425000 17.629000 5.415000 # c3 L1
331 37 3  0.062663  10.382000 17.246000 5.770000 # hc L1
332 37 3  0.062663  9.533000 17.990000 4.393000 # hc L1
333 37 3  0.062663  9.101000 18.448000 6.058000 # hc L1
334 38 5 -0.393770  14.618000 56.824001 4.233000 # sh L1
335 38 4  0.204285  14.352000 58.124001 4.014000 # hs L1
336 38 1  0.083509  14.704000 56.724998 6.043000 # c3 L1
337 38 2  0.032349  13.750000 57.035999 6.470000 # h1 L1
338 38 2  0.032349  15.495000 57.381001 6.405000 # h1 L1
339 38 1 -0.146711  15.005000 55.285000 6.461000 # c3 L1
340 38 3  0.062663  14.213000 54.629002 6.099000 # hc L1
341 38 3  0.062663  15.959000 54.973999 6.034000 # hc L1
342 38 3  0.062663  15.056000 55.226002 7.548000 # hc L1
343 39 5 -0.393770  56.054001 46.985001 24.316999 # sh L1
344 39 4  0.204285  56.021999 48.328999 24.308001 # hs L1
345 39 1  0.083509  54.297001 46.534000 24.295000 # c3 L1
346 39 2  0.032349  53.830002 46.937000 23.395000 # h1 L1
347 39 2  0.032349  53.805000 46.948002 25.174999 # h1 L1
348 39 1 -0.146711  54.160999 45.011002 24.302999 # c3 L1
349 39 3  0.062663  54.652000 44.598000 23.421000 # hc L1
350 39 3  0.062663  54.626999 44.609001 25.202000 # hc L1
351 39 3  0.062663  53.104000 44.741001 24.289000 # hc L1
352 40 5 -0.393770  22.618000 30.716999 43.365002 # sh L1
353 40 4  0.204285  22.586000 29.570000 44.067001 # hs L1
354 40 1  0.083509  22.562000 31.989000 44.657001 # c3 L1
355 40 2  0.032349  23.424000 31.875999 45.314999 # h1 L1
356 40 2  0.032349  21.646000 31.878000 45.236000 # h1 L1
357 40 1 -0.146711  22.591999 33.375000 44.008999 # c3 L1
358 40 3  0.062663  23.510000 33.485001 43.431000 # hc L1
359 40 3  0.062663  21.731001 33.487000 43.351002 # hc L1
360 40 3  0.062663  22.559000 34.139000 44.785999 # hc L1
361 41 5 -0.393770  36.096001 51.078999 47.382999 # sh L1
362 41 4  0.204285  35.030998 50.875999 46.585999 # hs L1
363 41 1  0.083509  37.308998 49.883999 46.756001 # c3 L1
364 41 2  0.032349  37.521000 50.098999 45.708000 # h1 L1
365 41 2  0.032349  36.904999 48.875999 46.845001 # h1 L1
366 41 1 -0.146711  38.598000 49.992001 47.571999 # c3 L1
367 41 3  0.062663  39.001999 51.000000 47.480999 # hc L1
368 41 3  0.062663  38.384998 49.777000 48.618999 # hc L1
369 41 3  0.062663  39.327000 49.272999 47.194000 # hc L1
370 42 5 -0.393770  45.353001 53.016998 33.891998 # sh L1
371 42 4  0.204285  45.473999 51.678001 33.889000 # hs L1
372 42 1  0.083509  43.602001 53.270000 33.491001 # c3 L1
373 42 2  0.032349  42.983002 52.791000 34.250999 # h1 L1
374 42 2  0.032349  43.386002 52.832001 32.516998 # h1 L1
375 42 1 -0.146711  43.298000 54.769001 33.456001 # c3 L1
376 42 3  0.062663  43.514000 55.206001 34.431000 # hc L1
377 42 3  0.062663  43.917000 55.247002 32.696999 # hc L1
378 42 3  0.062663  42.245998 54.919998 33.215000 # hc L1
379 43 5 -0.393770  33.953999 8.933000 26.045000 # sh L1
380 43 4  0.204285  33.597000 8.502000 24.822001 # hs L1
381 43 1  0.083509  35.766998 8.901000 25.976999 # c3 L1
382 43 2  0.032349  36.112000 9.561000 25.181000 # h1 L1
383 43 2  0.032349  36.104000 7.884000 25.775999 # h1 L1
384 43 1 -0.146711  36.335999 9.373000 27.316000 # c3 L1
385 43 3  0.062663  35.999001 10.390000 27.514999 # hc L1
386 43 3  0.062663  35.991001 8.712000 28.111000 # hc L1
387 43 3  0.062663  37.425999 9.353000 27.274000 # hc L1
388 44 5 -0.393770  18.875999 39.644001 20.924999 # sh L1
389 44 4  0.204285  19.474001 39.584999 19.723000 # hs L1
390 44 1  0.083509  17.115000 39.744999 20.502001 # c3 L1
391 44 2  0.032349  16.826000 38.861000 19.933001 # h1 L1
392 44 2  0.032349  16.937000 40.637001 19.900999 # h1 L1
393 44 1 -0.146711  16.285000 39.820000 21.785000 # c3 L1
394 44 3  0.062663  16.462000 38.928001 22.385000 # hc L1
395 44 3  0.062663  16.573000 40.705002 22.353001 # hc L1
396 44 3  0.062663  15.227000 39.881001 21.528999 # hc L1
397 45 5 -0.393770  53.974998 51.882999 47.686001 # sh L1
398 45 4  0.204285  54.168999 52.965000 46.911999 # hs L1
399 45 1  0.083509  53.605000 52.602001 49.308998 # c3 L1
400 45 2  0.032349  52.716000 53.229000 49.235001 # h1 L1
401 45 2  0.032349  54.449001 53.207001 49.639000 # h1 L1
402 45 1 -0.146711  53.355999 51.480000 50.319000 # c3 L1
403 45 3  0.062663  52.511002 50.875999 49.988998 # hc L1
404 45 3  0.062663  54.244999 50.854000 50.394001 # hc L1
405 45 3  0.062663  53.132999 51.914001 51.294998 # hc L1
406 46 5 -0.393770  9.260000 58.257000 47.548000 # sh L1
407 46 4  0.204285  8.615000 58.676998 46.445000 # hs L1
408 46 1  0.083509  10.040000 56.712002 47.001999 # c3 L1
409 46 2  0.032349  10.717000 56.919998 46.173000 # h1 L1
410 46 2  0.032349  9.270000 56.013000 46.674999 # h1 L1
411 46 1 -0.146711  10.826000 56.099998 48.162998 # c3 L1
412 46 3  0.062663  11.596000 56.799000 48.488998 # hc L1
413 46 3  0.062663  10.148000 55.891998 48.991001 # hc L1
414 46 3  0.062663  11.294000 55.172001 47.834000 # hc L1
415 47 5 -0.393770  7.352000 54.069000 41.567001 # sh L1
416 47 4  0.204285  7.821000 53.362999 42.612000 # hs L1
417 47 1  0.083509  5.556000 54.028999 41.819000 # c3 L1
418 47 2  0.032349  5.314000 54.487999 42.778000 # h1 L1
419 47 2  0.032349  5.212000 52.994999 41.813999 # h1 L1
420 47 1 -0.146711  4.866000 54.801998 40.694000 # c3 L1
421 47 3  0.062663  5.210000 55.835999 40.701000 # hc L1
422 47 3  0.062663  5.108000 54.342999 39.736000 # hc L1
423 47 3  0.062663  3.787000 54.778000 40.847000 # hc L1
424 48 5 -0.393770  38.027000 8.605000 2.971000 # sh L1
425 48 4  0.204285  38.612000 7.395000 2.928000 # hs L1
426 48 1  0.083509  39.313999 9.705000 2.319000 # c3 L1
427 48 2  0.032349  39.571999 9.399000 1.304000 # h1 L1
428 48 2  0.032349  40.198002 9.644000 2.952000 # h1 L1
429 48 1 -0.146711  38.794998 11.144000 2.303000 # c3 L1
430 48 3  0.062663  37.910999 11.203000 1.668000 # hc L1
431 48 3  0.062663  38.536999 11.448000 3.317000 # hc L1
432 48 3  0.062663  39.569000 11.804000 1.910000 # hc L1
433 49 5 -0.393770  41.459000 5.217000 49.674999 # sh L1
434 49 4  0.204285  41.512001 6.554000 49.543999 # hs L1
435 49 1  0.083509  39.682999 4.895000 49.861000 # c3 L1
436 49 2  0.032349  39.154999 5.251000 48.977001 # h1 L1
437 49 2  0.032349  39.310001 5.417000 50.742001 # h1 L1
438 49 1 -0.146711  39.452000 3.391000 50.022999 # c3 L1
439 49 3  0.062663  39.824001 2.870000 49.140999 # hc L1
440 49 3  0.062663  39.980000 3.035000 50.908001 # hc L1
441 49 3  0.062663  38.383999 3.199000 50.134998 # hc L1
442 50 5 -0.393770  5.645000 7.396000 20.816000 # sh L1
443 50 4  0.204285  6.332000 7.441000 19.660999 # hs L1
444 50 1  0.083509  6.563000 8.542000 21.882000 # c3 L1
445 50 2  0.032349  6.563000 9.535000 21.431999 # h1 L1
446 50 2  0.032349  7.590000 8.192000 21.990999 # h1 L1
447 50 1 -0.146711  5.896000 8.604000 23.257000 # c3 L1
448 50 3  0.062663  4.870000 8.954000 23.148001 # hc L1
449 50 3  0.062663  5.897000 7.611000 23.707001 # hc L1
450 50 3  0.062663  6.449000 9.293000 23.896999 # hc L1
451 51 5 -0.393770  20.226000 33.223999 2.903000 # sh L1
452 51 4  0.204285  19.969000 32.008999 2.389000 # hs L1
453 51 1  0.083509  21.504999 32.882000 4.143000 # c3 L1
454 51 2  0.032349  22.375000 32.439999 3.655000 # h1 L1
455 51 2  0.032349  21.114000 32.187000 4.886000 # h1 L1
456 51 1 -0.146711  21.913000 34.186001 4.829000 # c3 L1
457 51 3  0.062663  22.305000 34.881001 4.086000 # hc L1
458 51 3  0.062663  21.042999 34.626999 5.317000 # hc L1
459 51 3  0.062663  22.681999 33.979000 5.574000 # hc L1
460 52 5 -0.393770  27.488001 17.021999 47.118000 # sh L1
461 52 4  0.204285  26.184999 16.809999 46.862999 # hs L1
462 52 1  0.083509  27.452999 17.983999 48.655998 # c3 L1
463 52 2  0.032349  26.962000 17.402000 49.437000 # h1 L1
464 52 2  0.032349  26.902000 18.910000 48.493000 # h1 L1
465 52 1 -0.146711  28.884001 18.309999 49.085999 # c3 L1
466 52 3  0.062663  29.434000 17.384001 49.250000 # hc L1
467 52 3  0.062663  29.375000 18.892000 48.306000 # hc L1
468 52 3  0.062663  28.862000 18.888000 50.009998 # hc L1
469 53 5 -0.393770  40.400002 34.532001 55.251999 # sh L1
470 53 4  0.204285  41.691002 34.157001 55.287998 # hs L1
471 53 1  0.083509  40.497002 36.341999 55.325001 # c3 L1
472 53 2  0.032349  41.064999 36.709999 54.470001 # h1 L1
473 53 2  0.032349  40.994999 36.640999 56.247002 # h1 L1
474 53 1 -0.146711  39.085999 36.930000 55.292000 # c3 L1
475 53 3  0.062663  38.589001 36.631001 54.368999 # hc L1
476 53 3  0.062663  38.519001 36.562000 56.146999 # hc L1
477 53 3  0.062663  39.145000 38.018002 55.335999 # hc L1
478 54 5 -0.393770  16.323999 17.287001 38.998001 # sh L1
479 54 4  0.204285  16.115999 18.593000 38.752998 # hs L1
480 54 1  0.083509  15.739000 17.093000 40.703999 # c3 L1
481 54 2  0.032349  14.685000 17.368000 40.759998 # h1 L1
482 54 2  0.032349  16.318001 17.740000 41.362000 # h1 L1
483 54 1 -0.146711  15.911000 15.637000 41.139000 # c3 L1
484 54 3  0.062663  15.330000 14.990000 40.480999 # hc L1
485 54 3  0.062663  16.964001 15.363000 41.084000 # hc L1
486 54 3  0.062663  15.559000 15.521000 42.165001 # hc L1
487 55 5 -0.393770  26.737000 50.192001 50.077999 # sh L1
488 55 4  0.204285  27.247999 49.008999 49.695999 # hs L1
489 55 1  0.083509  25.870001 50.763000 48.589001 # c3 L1
490 55 2  0.032349  25.100000 50.041000 48.318001 # h1 L1
491 55 2  0.032349  26.582001 50.859001 47.770000 # h1 L1
492 55 1 -0.146711  25.223000 52.120998 48.865002 # c3 L1
493 55 3  0.062663  24.511000 52.023998 49.683998 # hc L1
494 55 3  0.062663  25.993999 52.842999 49.134998 # hc L1
495 55 3  0.062663  24.702999 52.463001 47.970001 # hc L1
496 56 5 -0.393770  14.720000 23.929001 34.505001 # sh L1
497 56 4  0.204285  14.184000 25.162001 34.494999 # hs L1
498 56 1  0.083509  16.242001 24.152000 35.466999 # c3 L1
499 56 2  0.032349  15.991000 24.510000 36.466000 # h1 L1
500 56 2  0.032349  16.879999 24.882000 34.970001 # h1 L1
501 56 1 -0.146711  16.979000 22.816000 35.571999 # c3 L1
502 56 3  0.062663  16.340000 22.087000 36.070000 # hc L1
503 56 3  0.062663  17.230000 22.459999 34.574001 # hc L1
504 56 3  0.062663  17.893999 22.952000 36.151001 # hc L1
505 57 5 -0.393770  50.541000 26.153000 50.723999 # sh L1
506 57 4  0.204285  51.582001 25.360001 50.416000 # hs L1
507 57 1  0.083509  50.181000 26.985001 49.153000 # c3 L1
508 57 2  0.032349  49.931999 26.240999 48.396000 # h1 L1
509 57 2  0.032349  51.056000 27.549999 48.833000 # h1 L1
510 57 1 -0.146711  48.999001 27.938999 49.340000 # c3 L1
511 57 3  0.062663  48.123001 27.372999 49.659000 # hc L1
512 57 3  0.062663  49.248001 28.683001 50.096001 # hc L1
513 57 3  0.062663  48.783001 28.438000 48.395000 # hc L1
514 58 5 -0.393770  19.341000 57.471001 58.112000 # sh L1
515 58 4  0.204285  18.306000 57.375000 57.258999 # hs L1
516 58 1  0.083509  20.540001 58.472000 57.189999 # c3 L1
517 58 2  0.032349  20.099001 59.442001 56.955002 # h1 L1
518 58 2  0.032349  20.806000 57.960999 56.264999 # h1 L1
519 58 1 -0.146711  21.796000 58.674999 58.040001 # c3 L1